# LAMMPS data file written by OVITO Pro 3.8.4

3205 atoms
1 atom types

-53.505 20.295 xlo xhi
-30.891126105 33.021548595 ylo yhi
-3.3 3.3 zlo zhi
36.9 0.0 0.0 xy xz yz

Masses

1 12.0107  # C

Atoms  # atomic

1	1	-53.505	-30.89112611	-3.3
2	1	-52.27500001	-30.18098528	-3.3
3	1	-52.275	-28.76070362	-3.3
4	1	-51.04500001	-28.05056279	-3.3
5	1	22.755	-26.63028113	-3.3
6	1	-49.81500001	-25.9201403	-3.3
7	1	-49.815	-24.49985864	-3.3
8	1	-48.58500001	-23.78971781	-3.3
9	1	-48.585	-22.36943615	-3.3
10	1	-47.35500001	-21.65929532	-3.3
11	1	-47.355	-20.23901366	-3.3
12	1	-46.12500001	-19.52887283	-3.3
13	1	27.675	-18.10859117	-3.3
14	1	-44.89500001	-17.39845034	-3.3
15	1	-44.895	-15.97816868	-3.3
16	1	-43.66500001	-15.26802785	-3.3
17	1	-43.665	-13.84774619	-3.3
18	1	-42.43500001	-13.13760536	-3.3
19	1	-42.435	-11.7173237	-3.3
20	1	-41.20500001	-11.00718287	-3.3
21	1	-41.205	-9.586901205	-3.3
22	1	-39.97500001	-8.876760382	-3.3
23	1	-39.975	-7.456478715	-3.3
24	1	-38.74500001	-6.746337892	-3.3
25	1	-38.745	-5.326056225	-3.3
26	1	-37.51500001	-4.615915402	-3.3
27	1	-37.515	-3.195633735	-3.3
28	1	-36.28500001	-2.485492912	-3.3
29	1	-36.285	-1.065211245	-3.3
30	1	-35.05500001	-0.355070422	-3.3
31	1	38.745	1.065211245	-3.3
32	1	-33.82500001	1.775352068	-3.3
33	1	39.975	3.195633735	-3.3
34	1	-32.59500001	3.905774558	-3.3
35	1	-32.595	5.326056225	-3.3
36	1	-31.36500001	6.036197048	-3.3
37	1	-31.365	7.456478715	-3.3
38	1	-30.13500001	8.166619538	-3.3
39	1	43.665	9.586901205	-3.3
40	1	-28.90500001	10.29704203	-3.3
41	1	44.895	11.7173237	-3.3
42	1	-27.67500001	12.42746452	-3.3
43	1	46.125	13.84774619	-3.3
44	1	-26.44500001	14.55788701	-3.3
45	1	47.355	15.97816868	-3.3
46	1	-25.21500001	16.6883095	-3.3
47	1	-25.215	18.10859117	-3.3
48	1	-23.98500001	18.81873199	-3.3
49	1	-23.985	20.23901366	-3.3
50	1	-22.75500001	20.94915448	-3.3
51	1	-22.755	22.36943615	-3.3
52	1	-21.52500001	23.07957697	-3.3
53	1	-21.525	24.49985864	-3.3
54	1	-20.29500001	25.20999946	-3.3
55	1	53.505	26.63028113	-3.3
56	1	-19.06500001	27.34042195	-3.3
57	1	54.735	28.76070362	-3.3
58	1	-17.83500001	29.47084444	-3.3
59	1	55.965	30.89112611	-3.3
60	1	-16.60500001	31.60126693	-3.3
61	1	39.1547407	2.560238053	0
62	1	-51.045	-30.89112611	-3.3
63	1	-49.81500001	-30.18098528	-3.3
64	1	-49.815	-28.76070362	-3.3
65	1	-48.58500001	-28.05056279	-3.3
66	1	-48.585	-26.63028113	-3.3
67	1	-47.35500001	-25.9201403	-3.3
68	1	-47.355	-24.49985864	-3.3
69	1	-46.12500001	-23.78971781	-3.3
70	1	-46.125	-22.36943615	-3.3
71	1	-44.89500001	-21.65929532	-3.3
72	1	-44.895	-20.23901366	-3.3
73	1	-43.66500001	-19.52887283	-3.3
74	1	-43.665	-18.10859117	-3.3
75	1	-42.43500001	-17.39845034	-3.3
76	1	-42.435	-15.97816868	-3.3
77	1	-41.20500001	-15.26802785	-3.3
78	1	-41.205	-13.84774619	-3.3
79	1	-39.97500001	-13.13760536	-3.3
80	1	-39.975	-11.7173237	-3.3
81	1	-38.74500001	-11.00718287	-3.3
82	1	-38.745	-9.586901205	-3.3
83	1	-37.51500001	-8.876760382	-3.3
84	1	-37.515	-7.456478715	-3.3
85	1	-36.28500001	-6.746337892	-3.3
86	1	-36.285	-5.326056225	-3.3
87	1	-35.05500001	-4.615915402	-3.3
88	1	-35.055	-3.195633735	-3.3
89	1	-33.82500001	-2.485492912	-3.3
90	1	-15.55171381	-30.51349952	0
91	1	-33.825	-1.065211245	-3.3
92	1	-16.74015482	-29.7358055	0
93	1	-32.59500001	-0.355070422	-3.3
94	1	-16.66087256	-28.31773841	0
95	1	-32.595	1.065211245	-3.3
96	1	-17.84931357	-27.54004439	0
97	1	-31.36500001	1.775352068	-3.3
98	1	-17.77003131	-26.1219773	0
99	1	-31.365	3.195633735	-3.3
100	1	-18.95847232	-25.34428328	0
101	1	-30.13500001	3.905774558	-3.3
102	1	-18.87919006	-23.92621619	0
103	1	-30.135	5.326056225	-3.3
104	1	-20.06763106	-23.14852217	0
105	1	-28.90500001	6.036197048	-3.3
106	1	-19.9883488	-21.73045508	0
107	1	-28.905	7.456478715	-3.3
108	1	-21.17678981	-20.95276106	0
109	1	-27.67500001	8.166619538	-3.3
110	1	-21.09750755	-19.53469396	0
111	1	-27.675	9.586901205	-3.3
112	1	-22.28594856	-18.75699995	0
113	1	-26.44500001	10.29704203	-3.3
114	1	-22.2066663	-17.33893285	0
115	1	-26.445	11.7173237	-3.3
116	1	-23.3951073	-16.56123883	0
117	1	-25.21500001	12.42746452	-3.3
118	1	-23.31582504	-15.14317174	0
119	1	-25.215	13.84774619	-3.3
120	1	-24.50426605	-14.36547772	0
121	1	-23.98500001	14.55788701	-3.3
122	1	-24.42498379	-12.94741063	0
123	1	-23.985	15.97816868	-3.3
124	1	-25.6134248	-12.16971661	0
125	1	-22.75500001	16.6883095	-3.3
126	1	-25.53414254	-10.75164952	0
127	1	-22.755	18.10859117	-3.3
128	1	-26.72258355	-9.973955499	0
129	1	-21.52500001	18.81873199	-3.3
130	1	-26.64330129	-8.555888406	0
131	1	-21.525	20.23901366	-3.3
132	1	-27.83174229	-7.778194387	0
133	1	-20.29500001	20.94915448	-3.3
134	1	-27.75246003	-6.360127294	0
135	1	-20.295	22.36943615	-3.3
136	1	-28.94090104	-5.582433276	0
137	1	-19.06500001	23.07957697	-3.3
138	1	-28.86161878	-4.164366183	0
139	1	-19.065	24.49985864	-3.3
140	1	-30.05005979	-3.386672164	0
141	1	-17.83500001	25.20999946	-3.3
142	1	-29.97077753	-1.968605071	0
143	1	-17.835	26.63028113	-3.3
144	1	-31.15921854	-1.190911053	0
145	1	-16.60500001	27.34042195	-3.3
146	1	-31.07993628	0.227156041	0
147	1	-16.605	28.76070362	-3.3
148	1	-32.26837728	1.004850059	0
149	1	-15.37500001	29.47084444	-3.3
150	1	-32.18909502	2.422917152	0
151	1	-15.375	30.89112611	-3.3
152	1	-33.37753603	3.200611171	0
153	1	-14.14500001	31.60126693	-3.3
154	1	40.50174623	4.618678264	0
155	1	-48.585	-30.89112611	-3.3
156	1	37.03507317	5.494653846	0
157	1	-47.35500001	-30.18098528	-3.3
158	1	37.11435543	6.912720939	0
159	1	-47.355	-28.76070362	-3.3
160	1	35.92591442	7.690414957	0
161	1	-46.12500001	-28.05056279	-3.3
162	1	36.00519668	9.108482051	0
163	1	-46.125	-26.63028113	-3.3
164	1	34.81675568	9.886176069	0
165	1	-44.89500001	-25.9201403	-3.3
166	1	34.89603794	11.30424316	0
167	1	-44.895	-24.49985864	-3.3
168	1	33.70759693	12.08193718	0
169	1	-43.66500001	-23.78971781	-3.3
170	1	33.78687919	13.50000427	0
171	1	-43.665	-22.36943615	-3.3
172	1	32.59843818	14.27769829	0
173	1	-42.43500001	-21.65929532	-3.3
174	1	32.67772044	15.69576539	0
175	1	-42.435	-20.23901366	-3.3
176	1	31.48927943	16.4734594	0
177	1	-41.20500001	-19.52887283	-3.3
178	1	31.56856169	17.8915265	0
179	1	-41.205	-18.10859117	-3.3
180	1	30.38012069	18.66922052	0
181	1	-39.97500001	-17.39845034	-3.3
182	1	30.45940295	20.08728761	0
183	1	-39.975	-15.97816868	-3.3
184	1	29.27096194	20.86498163	0
185	1	-38.74500001	-15.26802785	-3.3
186	1	29.3502442	22.28304872	0
187	1	-38.745	-13.84774619	-3.3
188	1	28.16180319	23.06074274	0
189	1	-37.51500001	-13.13760536	-3.3
190	1	28.24108545	24.47880983	0
191	1	-37.515	-11.7173237	-3.3
192	1	27.05264445	25.25650385	0
193	1	-36.28500001	-11.00718287	-3.3
194	1	27.13192671	26.67457094	0
195	1	-36.285	-9.586901205	-3.3
196	1	25.9434857	27.45226496	0
197	1	-35.05500001	-8.876760382	-3.3
198	1	26.02276796	28.87033205	0
199	1	-35.055	-7.456478715	-3.3
200	1	24.83432695	29.64802607	0
201	1	-33.82500001	-6.746337892	-3.3
202	1	24.91360921	31.06609317	0
203	1	-33.825	-5.326056225	-3.3
204	1	23.7251682	31.84378718	0
205	1	-32.59500001	-4.615915402	-3.3
206	1	-13.09554954	-30.65082042	0
207	1	-32.595	-3.195633735	-3.3
208	1	-14.28399054	-29.8731264	0
209	1	-31.36500001	-2.485492912	-3.3
210	1	-14.20470828	-28.45505931	0
211	1	-31.365	-1.065211245	-3.3
212	1	-15.39314929	-27.67736529	0
213	1	-30.13500001	-0.355070422	-3.3
214	1	-15.31386703	-26.2592982	0
215	1	-30.135	1.065211245	-3.3
216	1	-16.50230804	-25.48160418	0
217	1	-28.90500001	1.775352068	-3.3
218	1	-16.42302578	-24.06353709	0
219	1	-28.905	3.195633735	-3.3
220	1	-17.61146679	-23.28584307	0
221	1	-27.67500001	3.905774558	-3.3
222	1	-17.53218453	-21.86777598	0
223	1	-27.675	5.326056225	-3.3
224	1	-18.72062553	-21.09008196	0
225	1	-26.44500001	6.036197048	-3.3
226	1	-18.64134327	-19.67201486	0
227	1	-26.445	7.456478715	-3.3
228	1	-19.82978428	-18.89432085	0
229	1	-25.21500001	8.166619538	-3.3
230	1	-19.75050202	-17.47625375	0
231	1	-25.215	9.586901205	-3.3
232	1	-20.93894303	-16.69855973	0
233	1	-23.98500001	10.29704203	-3.3
234	1	-20.85966077	-15.28049264	0
235	1	-23.985	11.7173237	-3.3
236	1	-22.04810178	-14.50279862	0
237	1	-22.75500001	12.42746452	-3.3
238	1	-21.96881952	-13.08473153	0
239	1	-22.755	13.84774619	-3.3
240	1	-23.15726052	-12.30703751	0
241	1	-21.52500001	14.55788701	-3.3
242	1	-23.07797826	-10.88897042	0
243	1	-21.525	15.97816868	-3.3
244	1	-24.26641927	-10.1112764	0
245	1	-20.29500001	16.6883095	-3.3
246	1	-24.18713701	-8.693209306	0
247	1	-20.295	18.10859117	-3.3
248	1	-25.37557802	-7.915515288	0
249	1	-19.06500001	18.81873199	-3.3
250	1	-25.29629576	-6.497448195	0
251	1	-19.065	20.23901366	-3.3
252	1	-26.48473676	-5.719754176	0
253	1	-17.83500001	20.94915448	-3.3
254	1	-26.4054545	-4.301687083	0
255	1	-17.835	22.36943615	-3.3
256	1	-27.59389551	-3.523993065	0
257	1	-16.60500001	23.07957697	-3.3
258	1	-27.51461325	-2.105925971	0
259	1	-16.605	24.49985864	-3.3
260	1	-28.70305426	-1.328231953	0
261	1	-15.37500001	25.20999946	-3.3
262	1	-28.623772	0.08983514	0
263	1	-15.375	26.63028113	-3.3
264	1	-29.81221301	0.867529158	0
265	1	-14.14500001	27.34042195	-3.3
266	1	-29.73293075	2.285596252	0
267	1	-14.145	28.76070362	-3.3
268	1	-30.92137175	3.06329027	0
269	1	-12.91500001	29.47084444	-3.3
270	1	-30.84208949	4.481357363	0
271	1	-12.915	30.89112611	-3.3
272	1	-32.0305305	5.259051382	0
273	1	-11.68500001	31.60126693	-3.3
274	1	41.84875176	6.677118475	0
275	1	-46.125	-30.89112611	-3.3
276	1	38.3820787	7.553094057	0
277	1	-44.89500001	-30.18098528	-3.3
278	1	38.46136096	8.97116115	0
279	1	-44.895	-28.76070362	-3.3
280	1	37.27291995	9.748855168	0
281	1	-43.66500001	-28.05056279	-3.3
282	1	37.35220221	11.16692226	0
283	1	-43.665	-26.63028113	-3.3
284	1	36.16376121	11.94461628	0
285	1	-42.43500001	-25.9201403	-3.3
286	1	36.24304347	13.36268337	0
287	1	-42.435	-24.49985864	-3.3
288	1	35.05460246	14.14037739	0
289	1	-41.20500001	-23.78971781	-3.3
290	1	35.13388472	15.55844449	0
291	1	-41.205	-22.36943615	-3.3
292	1	33.94544371	16.3361385	0
293	1	-39.97500001	-21.65929532	-3.3
294	1	34.02472597	17.7542056	0
295	1	-39.975	-20.23901366	-3.3
296	1	32.83628496	18.53189961	0
297	1	-38.74500001	-19.52887283	-3.3
298	1	32.91556722	19.94996671	0
299	1	-38.745	-18.10859117	-3.3
300	1	31.72712622	20.72766073	0
301	1	-37.51500001	-17.39845034	-3.3
302	1	31.80640848	22.14572782	0
303	1	-37.515	-15.97816868	-3.3
304	1	30.61796747	22.92342184	0
305	1	-36.28500001	-15.26802785	-3.3
306	1	30.69724973	24.34148893	0
307	1	-36.285	-13.84774619	-3.3
308	1	29.50880872	25.11918295	0
309	1	-35.05500001	-13.13760536	-3.3
310	1	29.58809098	26.53725004	0
311	1	-35.055	-11.7173237	-3.3
312	1	28.39964998	27.31494406	0
313	1	-33.82500001	-11.00718287	-3.3
314	1	28.47893224	28.73301115	0
315	1	-33.825	-9.586901205	-3.3
316	1	27.29049123	29.51070517	0
317	1	-32.59500001	-8.876760382	-3.3
318	1	27.36977349	30.92877227	0
319	1	-32.595	-7.456478715	-3.3
320	1	26.18133248	31.70646628	0
321	1	-31.36500001	-6.746337892	-3.3
322	1	-10.63938526	-30.78814132	0
323	1	-31.365	-5.326056225	-3.3
324	1	-11.82782627	-30.0104473	0
325	1	-30.13500001	-4.615915402	-3.3
326	1	-11.74854401	-28.59238021	0
327	1	-30.135	-3.195633735	-3.3
328	1	-12.93698501	-27.81468619	0
329	1	-28.90500001	-2.485492912	-3.3
330	1	-12.85770275	-26.3966191	0
331	1	-28.905	-1.065211245	-3.3
332	1	-14.04614376	-25.61892508	0
333	1	-27.67500001	-0.355070422	-3.3
334	1	-13.9668615	-24.20085799	0
335	1	-27.675	1.065211245	-3.3
336	1	-15.15530251	-23.42316397	0
337	1	-26.44500001	1.775352068	-3.3
338	1	-15.07602025	-22.00509688	0
339	1	-26.445	3.195633735	-3.3
340	1	-16.26446126	-21.22740286	0
341	1	-25.21500001	3.905774558	-3.3
342	1	-16.185179	-19.80933576	0
343	1	-25.215	5.326056225	-3.3
344	1	-17.37362	-19.03164175	0
345	1	-23.98500001	6.036197048	-3.3
346	1	-17.29433774	-17.61357465	0
347	1	-23.985	7.456478715	-3.3
348	1	-18.48277875	-16.83588063	0
349	1	-22.75500001	8.166619538	-3.3
350	1	-18.40349649	-15.41781354	0
351	1	-22.755	9.586901205	-3.3
352	1	-19.5919375	-14.64011952	0
353	1	-21.52500001	10.29704203	-3.3
354	1	-19.51265524	-13.22205243	0
355	1	-21.525	11.7173237	-3.3
356	1	-20.70109625	-12.44435841	0
357	1	-20.29500001	12.42746452	-3.3
358	1	-20.62181399	-11.02629132	0
359	1	-20.295	13.84774619	-3.3
360	1	-21.81025499	-10.2485973	0
361	1	-19.06500001	14.55788701	-3.3
362	1	-21.73097273	-8.830530207	0
363	1	-19.065	15.97816868	-3.3
364	1	-22.91941374	-8.052836188	0
365	1	-17.83500001	16.6883095	-3.3
366	1	-22.84013148	-6.634769095	0
367	1	-17.835	18.10859117	-3.3
368	1	-24.02857249	-5.857075077	0
369	1	-16.60500001	18.81873199	-3.3
370	1	-23.94929023	-4.439007983	0
371	1	-16.605	20.23901366	-3.3
372	1	-25.13773123	-3.661313965	0
373	1	-15.37500001	20.94915448	-3.3
374	1	-25.05844897	-2.243246872	0
375	1	-15.375	22.36943615	-3.3
376	1	-26.24688998	-1.465552854	0
377	1	-14.14500001	23.07957697	-3.3
378	1	-26.16760772	-0.04748576	0
379	1	-14.145	24.49985864	-3.3
380	1	-27.35604873	0.730208258	0
381	1	-12.91500001	25.20999946	-3.3
382	1	-27.27676647	2.148275351	0
383	1	-12.915	26.63028113	-3.3
384	1	-28.46520748	2.92596937	0
385	1	-11.68500001	27.34042195	-3.3
386	1	-28.38592522	4.344036463	0
387	1	-11.685	28.76070362	-3.3
388	1	-29.57436622	5.121730481	0
389	1	-10.45500001	29.47084444	-3.3
390	1	-29.49508396	6.539797575	0
391	1	-10.455	30.89112611	-3.3
392	1	-30.68352497	7.317491593	0
393	1	-9.225000012	31.60126693	-3.3
394	1	-30.60424271	8.735558686	0
395	1	-43.665	-30.89112611	-3.3
396	1	39.72908423	9.611534268	0
397	1	-42.43500001	-30.18098528	-3.3
398	1	39.80836649	11.02960136	0
399	1	-42.435	-28.76070362	-3.3
400	1	38.61992548	11.80729538	0
401	1	-41.20500001	-28.05056279	-3.3
402	1	38.69920774	13.22536247	0
403	1	-41.205	-26.63028113	-3.3
404	1	37.51076674	14.00305649	0
405	1	-39.97500001	-25.9201403	-3.3
406	1	37.590049	15.42112358	0
407	1	-39.975	-24.49985864	-3.3
408	1	36.40160799	16.1988176	0
409	1	-38.74500001	-23.78971781	-3.3
410	1	36.48089025	17.6168847	0
411	1	-38.745	-22.36943615	-3.3
412	1	35.29244924	18.39457871	0
413	1	-37.51500001	-21.65929532	-3.3
414	1	35.3717315	19.81264581	0
415	1	-37.515	-20.23901366	-3.3
416	1	34.18329049	20.59033983	0
417	1	-36.28500001	-19.52887283	-3.3
418	1	34.26257275	22.00840692	0
419	1	-36.285	-18.10859117	-3.3
420	1	33.07413175	22.78610094	0
421	1	-35.05500001	-17.39845034	-3.3
422	1	33.15341401	24.20416803	0
423	1	-35.055	-15.97816868	-3.3
424	1	31.964973	24.98186205	0
425	1	-33.82500001	-15.26802785	-3.3
426	1	32.04425526	26.39992914	0
427	1	-33.825	-13.84774619	-3.3
428	1	30.85581425	27.17762316	0
429	1	-32.59500001	-13.13760536	-3.3
430	1	30.93509651	28.59569025	0
431	1	-32.595	-11.7173237	-3.3
432	1	29.74665551	29.37338427	0
433	1	-31.36500001	-11.00718287	-3.3
434	1	29.82593777	30.79145137	0
435	1	-31.365	-9.586901205	-3.3
436	1	28.63749676	31.56914538	0
437	1	-30.13500001	-8.876760382	-3.3
438	1	28.71677902	32.98721248	0
439	1	-30.135	-7.456478715	-3.3
440	1	-9.37166199	-30.1477682	0
441	1	-28.90500001	-6.746337892	-3.3
442	1	-9.29237973	-28.72970111	0
443	1	-28.905	-5.326056225	-3.3
444	1	-10.48082074	-27.95200709	0
445	1	-27.67500001	-4.615915402	-3.3
446	1	-10.40153848	-26.53394	0
447	1	-27.675	-3.195633735	-3.3
448	1	-11.58997948	-25.75624598	0
449	1	-26.44500001	-2.485492912	-3.3
450	1	-11.51069722	-24.33817889	0
451	1	-26.445	-1.065211245	-3.3
452	1	-12.69913823	-23.56048487	0
453	1	-25.21500001	-0.355070422	-3.3
454	1	-12.61985597	-22.14241778	0
455	1	-25.215	1.065211245	-3.3
456	1	-13.80829698	-21.36472376	0
457	1	-23.98500001	1.775352068	-3.3
458	1	-13.72901472	-19.94665667	0
459	1	-23.985	3.195633735	-3.3
460	1	-14.91745573	-19.16896265	0
461	1	-22.75500001	3.905774558	-3.3
462	1	-14.83817347	-17.75089555	0
463	1	-22.755	5.326056225	-3.3
464	1	-16.02661447	-16.97320154	0
465	1	-21.52500001	6.036197048	-3.3
466	1	-15.94733221	-15.55513444	0
467	1	-21.525	7.456478715	-3.3
468	1	-17.13577322	-14.77744042	0
469	1	-20.29500001	8.166619538	-3.3
470	1	-17.05649096	-13.35937333	0
471	1	-20.295	9.586901205	-3.3
472	1	-18.24493197	-12.58167931	0
473	1	-19.06500001	10.29704203	-3.3
474	1	-18.16564971	-11.16361222	0
475	1	-19.065	11.7173237	-3.3
476	1	-19.35409072	-10.3859182	0
477	1	-17.83500001	12.42746452	-3.3
478	1	-19.27480846	-8.967851107	0
479	1	-17.835	13.84774619	-3.3
480	1	-20.46324946	-8.190157089	0
481	1	-16.60500001	14.55788701	-3.3
482	1	-20.3839672	-6.772089996	0
483	1	-16.605	15.97816868	-3.3
484	1	-21.57240821	-5.994395977	0
485	1	-15.37500001	16.6883095	-3.3
486	1	-21.49312595	-4.576328884	0
487	1	-15.375	18.10859117	-3.3
488	1	-22.68156696	-3.798634866	0
489	1	-14.14500001	18.81873199	-3.3
490	1	-22.6022847	-2.380567772	0
491	1	-14.145	20.23901366	-3.3
492	1	-23.7907257	-1.602873754	0
493	1	-12.91500001	20.94915448	-3.3
494	1	-23.71144344	-0.184806661	0
495	1	-12.915	22.36943615	-3.3
496	1	-24.89988445	0.592887358	0
497	1	-11.68500001	23.07957697	-3.3
498	1	-24.82060219	2.010954451	0
499	1	-11.685	24.49985864	-3.3
500	1	-26.0090432	2.788648469	0
501	1	-10.45500001	25.20999946	-3.3
502	1	-25.92976094	4.206715562	0
503	1	-10.455	26.63028113	-3.3
504	1	-27.11820195	4.984409581	0
505	1	-9.225000012	27.34042195	-3.3
506	1	-27.03891969	6.402476674	0
507	1	-9.225	28.76070362	-3.3
508	1	-28.22736069	7.180170692	0
509	1	-7.995000012	29.47084444	-3.3
510	1	-28.14807843	8.598237786	0
511	1	-7.995	30.89112611	-3.3
512	1	-29.33651944	9.375931804	0
513	1	-6.765000012	31.60126693	-3.3
514	1	-29.25723718	10.7939989	0
515	1	-41.205	-30.89112611	-3.3
516	1	41.07608976	11.66997448	0
517	1	-39.97500001	-30.18098528	-3.3
518	1	41.15537202	13.08804157	0
519	1	-39.975	-28.76070362	-3.3
520	1	39.96693101	13.86573559	0
521	1	-38.74500001	-28.05056279	-3.3
522	1	40.04621327	15.28380268	0
523	1	-38.745	-26.63028113	-3.3
524	1	38.85777227	16.0614967	0
525	1	-37.51500001	-25.9201403	-3.3
526	1	38.93705453	17.4795638	0
527	1	-37.515	-24.49985864	-3.3
528	1	37.74861352	18.25725781	0
529	1	-36.28500001	-23.78971781	-3.3
530	1	37.82789578	19.67532491	0
531	1	-36.285	-22.36943615	-3.3
532	1	36.63945477	20.45301893	0
533	1	-35.05500001	-21.65929532	-3.3
534	1	36.71873703	21.87108602	0
535	1	-35.055	-20.23901366	-3.3
536	1	35.53029602	22.64878004	0
537	1	-33.82500001	-19.52887283	-3.3
538	1	35.60957828	24.06684713	0
539	1	-33.825	-18.10859117	-3.3
540	1	34.42113728	24.84454115	0
541	1	-32.59500001	-17.39845034	-3.3
542	1	34.50041954	26.26260824	0
543	1	-32.595	-15.97816868	-3.3
544	1	33.31197853	27.04030226	0
545	1	-31.36500001	-15.26802785	-3.3
546	1	33.39126079	28.45836935	0
547	1	-31.365	-13.84774619	-3.3
548	1	32.20281978	29.23606337	0
549	1	-30.13500001	-13.13760536	-3.3
550	1	32.28210204	30.65413047	0
551	1	-30.135	-11.7173237	-3.3
552	1	31.09366103	31.43182448	0
553	1	-28.90500001	-11.00718287	-3.3
554	1	31.1729433	32.84989158	0
555	1	-28.905	-9.586901205	-3.3
556	1	-6.915497712	-30.28508911	0
557	1	-27.67500001	-8.876760382	-3.3
558	1	-6.836215452	-28.86702201	0
559	1	-27.675	-7.456478715	-3.3
560	1	-8.02465646	-28.08932799	0
561	1	-26.44500001	-6.746337892	-3.3
562	1	-7.9453742	-26.6712609	0
563	1	-26.445	-5.326056225	-3.3
564	1	-9.133815207	-25.89356688	0
565	1	-25.21500001	-4.615915402	-3.3
566	1	-9.054532947	-24.47549979	0
567	1	-25.215	-3.195633735	-3.3
568	1	-10.24297395	-23.69780577	0
569	1	-23.98500001	-2.485492912	-3.3
570	1	-10.16369169	-22.27973868	0
571	1	-23.985	-1.065211245	-3.3
572	1	-11.3521327	-21.50204466	0
573	1	-22.75500001	-0.355070422	-3.3
574	1	-11.27285044	-20.08397757	0
575	1	-22.755	1.065211245	-3.3
576	1	-12.46129145	-19.30628355	0
577	1	-21.52500001	1.775352068	-3.3
578	1	-12.38200919	-17.88821645	0
579	1	-21.525	3.195633735	-3.3
580	1	-13.5704502	-17.11052244	0
581	1	-20.29500001	3.905774558	-3.3
582	1	-13.49116794	-15.69245534	0
583	1	-20.295	5.326056225	-3.3
584	1	-14.67960894	-14.91476132	0
585	1	-19.06500001	6.036197048	-3.3
586	1	-14.60032668	-13.49669423	0
587	1	-19.065	7.456478715	-3.3
588	1	-15.78876769	-12.71900021	0
589	1	-17.83500001	8.166619538	-3.3
590	1	-15.70948543	-11.30093312	0
591	1	-17.835	9.586901205	-3.3
592	1	-16.89792644	-10.5232391	0
593	1	-16.60500001	10.29704203	-3.3
594	1	-16.81864418	-9.105172008	0
595	1	-16.605	11.7173237	-3.3
596	1	-18.00708519	-8.327477989	0
597	1	-15.37500001	12.42746452	-3.3
598	1	-17.92780293	-6.909410896	0
599	1	-15.375	13.84774619	-3.3
600	1	-19.11624393	-6.131716878	0
601	1	-14.14500001	14.55788701	-3.3
602	1	-19.03696167	-4.713649784	0
603	1	-14.145	15.97816868	-3.3
604	1	-20.22540268	-3.935955766	0
605	1	-12.91500001	16.6883095	-3.3
606	1	-20.14612042	-2.517888673	0
607	1	-12.915	18.10859117	-3.3
608	1	-21.33456143	-1.740194655	0
609	1	-11.68500001	18.81873199	-3.3
610	1	-21.25527917	-0.322127561	0
611	1	-11.685	20.23901366	-3.3
612	1	-22.44372018	0.455566457	0
613	1	-10.45500001	20.94915448	-3.3
614	1	-22.36443791	1.87363355	0
615	1	-10.455	22.36943615	-3.3
616	1	-23.55287892	2.651327569	0
617	1	-9.225000012	23.07957697	-3.3
618	1	-23.47359666	4.069394662	0
619	1	-9.225	24.49985864	-3.3
620	1	-24.66203767	4.84708868	0
621	1	-7.995000012	25.20999946	-3.3
622	1	-24.58275541	6.265155774	0
623	1	-7.995	26.63028113	-3.3
624	1	-25.77119642	7.042849792	0
625	1	-6.765000012	27.34042195	-3.3
626	1	-25.69191416	8.460916885	0
627	1	-6.765	28.76070362	-3.3
628	1	-26.88035516	9.238610903	0
629	1	-5.535000012	29.47084444	-3.3
630	1	-26.8010729	10.656678	0
631	1	-5.535	30.89112611	-3.3
632	1	-27.98951391	11.43437201	0
633	1	-4.305000012	31.60126693	-3.3
634	1	-27.91023165	12.85243911	0
635	1	-38.745	-30.89112611	-3.3
636	1	42.42309529	13.72841469	0
637	1	-37.51500001	-30.18098528	-3.3
638	1	42.50237755	15.14648178	0
639	1	-37.515	-28.76070362	-3.3
640	1	41.31393654	15.9241758	0
641	1	-36.28500001	-28.05056279	-3.3
642	1	41.3932188	17.3422429	0
643	1	-36.285	-26.63028113	-3.3
644	1	40.2047778	18.11993691	0
645	1	-35.05500001	-25.9201403	-3.3
646	1	40.28406006	19.53800401	0
647	1	-35.055	-24.49985864	-3.3
648	1	39.09561905	20.31569802	0
649	1	-33.82500001	-23.78971781	-3.3
650	1	39.17490131	21.73376512	0
651	1	-33.825	-22.36943615	-3.3
652	1	37.9864603	22.51145914	0
653	1	-32.59500001	-21.65929532	-3.3
654	1	38.06574256	23.92952623	0
655	1	-32.595	-20.23901366	-3.3
656	1	36.87730155	24.70722025	0
657	1	-31.36500001	-19.52887283	-3.3
658	1	36.95658381	26.12528734	0
659	1	-31.365	-18.10859117	-3.3
660	1	35.76814281	26.90298136	0
661	1	-30.13500001	-17.39845034	-3.3
662	1	35.84742507	28.32104845	0
663	1	-30.135	-15.97816868	-3.3
664	1	34.65898406	29.09874247	0
665	1	-28.90500001	-15.26802785	-3.3
666	1	34.73826632	30.51680956	0
667	1	-28.905	-13.84774619	-3.3
668	1	33.54982531	31.29450358	0
669	1	-27.67500001	-13.13760536	-3.3
670	1	33.62910757	32.71257068	0
671	1	-27.675	-11.7173237	-3.3
672	1	-4.459333435	-30.42241001	0
673	1	-26.44500001	-11.00718287	-3.3
674	1	-4.380051175	-29.00434291	0
675	1	-26.445	-9.586901205	-3.3
676	1	-5.568492183	-28.22664889	0
677	1	-25.21500001	-8.876760382	-3.3
678	1	-5.489209923	-26.8085818	0
679	1	-25.215	-7.456478715	-3.3
680	1	-6.67765093	-26.03088778	0
681	1	-23.98500001	-6.746337892	-3.3
682	1	-6.59836867	-24.61282069	0
683	1	-23.985	-5.326056225	-3.3
684	1	-7.786809677	-23.83512667	0
685	1	-22.75500001	-4.615915402	-3.3
686	1	-7.707527417	-22.41705958	0
687	1	-22.755	-3.195633735	-3.3
688	1	-8.895968425	-21.63936556	0
689	1	-21.52500001	-2.485492912	-3.3
690	1	-8.816686165	-20.22129847	0
691	1	-21.525	-1.065211245	-3.3
692	1	-10.00512717	-19.44360445	0
693	1	-20.29500001	-0.355070422	-3.3
694	1	-9.925844912	-18.02553735	0
695	1	-20.295	1.065211245	-3.3
696	1	-11.11428592	-17.24784334	0
697	1	-19.06500001	1.775352068	-3.3
698	1	-11.03500366	-15.82977624	0
699	1	-19.065	3.195633735	-3.3
700	1	-12.22344467	-15.05208222	0
701	1	-17.83500001	3.905774558	-3.3
702	1	-12.14416241	-13.63401513	0
703	1	-17.835	5.326056225	-3.3
704	1	-13.33260341	-12.85632111	0
705	1	-16.60500001	6.036197048	-3.3
706	1	-13.25332115	-11.43825402	0
707	1	-16.605	7.456478715	-3.3
708	1	-14.44176216	-10.66056	0
709	1	-15.37500001	8.166619538	-3.3
710	1	-14.3624799	-9.242492908	0
711	1	-15.375	9.586901205	-3.3
712	1	-15.55092091	-8.46479889	0
713	1	-14.14500001	10.29704203	-3.3
714	1	-15.47163865	-7.046731796	0
715	1	-14.145	11.7173237	-3.3
716	1	-16.66007966	-6.269037778	0
717	1	-12.91500001	12.42746452	-3.3
718	1	-16.5807974	-4.850970685	0
719	1	-12.915	13.84774619	-3.3
720	1	-17.7692384	-4.073276667	0
721	1	-11.68500001	14.55788701	-3.3
722	1	-17.68995614	-2.655209573	0
723	1	-11.685	15.97816868	-3.3
724	1	-18.87839715	-1.877515555	0
725	1	-10.45500001	16.6883095	-3.3
726	1	-18.79911489	-0.459448462	0
727	1	-10.455	18.10859117	-3.3
728	1	-19.9875559	0.318245557	0
729	1	-9.225000012	18.81873199	-3.3
730	1	-19.90827364	1.73631265	0
731	1	-9.225	20.23901366	-3.3
732	1	-21.09671465	2.514006668	0
733	1	-7.995000012	20.94915448	-3.3
734	1	-21.01743239	3.932073762	0
735	1	-7.995	22.36943615	-3.3
736	1	-22.20587339	4.70976778	0
737	1	-6.765000012	23.07957697	-3.3
738	1	-22.12659113	6.127834873	0
739	1	-6.765	24.49985864	-3.3
740	1	-23.31503214	6.905528891	0
741	1	-5.535000012	25.20999946	-3.3
742	1	-23.23574988	8.323595985	0
743	1	-5.535	26.63028113	-3.3
744	1	-24.42419089	9.101290003	0
745	1	-4.305000012	27.34042195	-3.3
746	1	-24.34490863	10.5193571	0
747	1	-4.305	28.76070362	-3.3
748	1	-25.53334963	11.29705111	0
749	1	-3.075000012	29.47084444	-3.3
750	1	-25.45406737	12.71511821	0
751	1	-3.075	30.89112611	-3.3
752	1	-26.64250838	13.49281223	0
753	1	-1.845000012	31.60126693	-3.3
754	1	-26.56322612	14.91087932	0
755	1	-36.285	-30.89112611	-3.3
756	1	43.77010082	15.7868549	0
757	1	-35.05500001	-30.18098528	-3.3
758	1	43.84938308	17.20492199	0
759	1	-35.055	-28.76070362	-3.3
760	1	42.66094207	17.98261601	0
761	1	-33.82500001	-28.05056279	-3.3
762	1	42.74022433	19.40068311	0
763	1	-33.825	-26.63028113	-3.3
764	1	41.55178333	20.17837712	0
765	1	-32.59500001	-25.9201403	-3.3
766	1	41.63106559	21.59644422	0
767	1	-32.595	-24.49985864	-3.3
768	1	40.44262458	22.37413824	0
769	1	-31.36500001	-23.78971781	-3.3
770	1	40.52190684	23.79220533	0
771	1	-31.365	-22.36943615	-3.3
772	1	39.33346583	24.56989935	0
773	1	-30.13500001	-21.65929532	-3.3
774	1	39.41274809	25.98796644	0
775	1	-30.135	-20.23901366	-3.3
776	1	38.22430708	26.76566046	0
777	1	-28.90500001	-19.52887283	-3.3
778	1	38.30358934	28.18372755	0
779	1	-28.905	-18.10859117	-3.3
780	1	37.11514834	28.96142157	0
781	1	-27.67500001	-17.39845034	-3.3
782	1	37.1944306	30.37948866	0
783	1	-27.675	-15.97816868	-3.3
784	1	36.00598959	31.15718268	0
785	1	-26.44500001	-15.26802785	-3.3
786	1	36.08527185	32.57524978	0
787	1	-26.445	-13.84774619	-3.3
788	1	-2.003169158	-30.55973091	0
789	1	-25.21500001	-13.13760536	-3.3
790	1	-1.923886898	-29.14166381	0
791	1	-25.215	-11.7173237	-3.3
792	1	-3.112327906	-28.36396979	0
793	1	-23.98500001	-11.00718287	-3.3
794	1	-3.033045646	-26.9459027	0
795	1	-23.985	-9.586901205	-3.3
796	1	-4.221486653	-26.16820868	0
797	1	-22.75500001	-8.876760382	-3.3
798	1	-4.142204393	-24.75014159	0
799	1	-22.755	-7.456478715	-3.3
800	1	-5.3306454	-23.97244757	0
801	1	-21.52500001	-6.746337892	-3.3
802	1	-5.25136314	-22.55438048	0
803	1	-21.525	-5.326056225	-3.3
804	1	-6.439804148	-21.77668646	0
805	1	-20.29500001	-4.615915402	-3.3
806	1	-6.360521887	-20.35861937	0
807	1	-20.295	-3.195633735	-3.3
808	1	-7.548962895	-19.58092535	0
809	1	-19.06500001	-2.485492912	-3.3
810	1	-7.469680635	-18.16285825	0
811	1	-19.065	-1.065211245	-3.3
812	1	-8.658121642	-17.38516424	0
813	1	-17.83500001	-0.355070422	-3.3
814	1	-8.578839382	-15.96709714	0
815	1	-17.835	1.065211245	-3.3
816	1	-9.767280389	-15.18940313	0
817	1	-16.60500001	1.775352068	-3.3
818	1	-9.687998129	-13.77133603	0
819	1	-16.605	3.195633735	-3.3
820	1	-10.87643914	-12.99364201	0
821	1	-15.37500001	3.905774558	-3.3
822	1	-10.79715688	-11.57557492	0
823	1	-15.375	5.326056225	-3.3
824	1	-11.98559788	-10.7978809	0
825	1	-14.14500001	6.036197048	-3.3
826	1	-11.90631562	-9.379813809	0
827	1	-14.145	7.456478715	-3.3
828	1	-13.09475663	-8.60211979	0
829	1	-12.91500001	8.166619538	-3.3
830	1	-13.01547437	-7.184052697	0
831	1	-12.915	9.586901205	-3.3
832	1	-14.20391538	-6.406358679	0
833	1	-11.68500001	10.29704203	-3.3
834	1	-14.12463312	-4.988291585	0
835	1	-11.685	11.7173237	-3.3
836	1	-15.31307413	-4.210597567	0
837	1	-10.45500001	12.42746452	-3.3
838	1	-15.23379187	-2.792530474	0
839	1	-10.455	13.84774619	-3.3
840	1	-16.42223287	-2.014836456	0
841	1	-9.225000012	14.55788701	-3.3
842	1	-16.34295061	-0.596769362	0
843	1	-9.225	15.97816868	-3.3
844	1	-17.53139162	0.180924656	0
845	1	-7.995000012	16.6883095	-3.3
846	1	-17.45210936	1.598991749	0
847	1	-7.995	18.10859117	-3.3
848	1	-18.64055037	2.376685768	0
849	1	-6.765000012	18.81873199	-3.3
850	1	-18.56126811	3.794752861	0
851	1	-6.765	20.23901366	-3.3
852	1	-19.74970912	4.572446879	0
853	1	-5.535000012	20.94915448	-3.3
854	1	-19.67042686	5.990513973	0
855	1	-5.535	22.36943615	-3.3
856	1	-20.85886786	6.768207991	0
857	1	-4.305000012	23.07957697	-3.3
858	1	-20.7795856	8.186275084	0
859	1	-4.305	24.49985864	-3.3
860	1	-21.96802661	8.963969102	0
861	1	-3.075000012	25.20999946	-3.3
862	1	-21.88874435	10.3820362	0
863	1	-3.075	26.63028113	-3.3
864	1	-23.07718536	11.15973021	0
865	1	-1.845000012	27.34042195	-3.3
866	1	-22.9979031	12.57779731	0
867	1	-1.845	28.76070362	-3.3
868	1	-24.1863441	13.35549133	0
869	1	-0.615000012	29.47084444	-3.3
870	1	-24.10706184	14.77355842	0
871	1	-0.615	30.89112611	-3.3
872	1	-25.29550285	15.55125244	0
873	1	0.614999988	31.60126693	-3.3
874	1	-25.21622059	16.96931953	0
875	1	-33.825	-30.89112611	-3.3
876	1	45.11710635	17.84529511	0
877	1	-32.59500001	-30.18098528	-3.3
878	1	45.19638861	19.26336221	0
879	1	-32.595	-28.76070362	-3.3
880	1	44.0079476	20.04105622	0
881	1	-31.36500001	-28.05056279	-3.3
882	1	44.08722986	21.45912332	0
883	1	-31.365	-26.63028113	-3.3
884	1	42.89878886	22.23681734	0
885	1	-30.13500001	-25.9201403	-3.3
886	1	42.97807112	23.65488443	0
887	1	-30.135	-24.49985864	-3.3
888	1	41.78963011	24.43257845	0
889	1	-28.90500001	-23.78971781	-3.3
890	1	41.86891237	25.85064554	0
891	1	-28.905	-22.36943615	-3.3
892	1	40.68047136	26.62833956	0
893	1	-27.67500001	-21.65929532	-3.3
894	1	40.75975362	28.04640665	0